/*--------------------------------*- C++ -*----------------------------------*\
| =========                 |                                                 |
| \\      /  F ield         | foam-extend: Open Source CFD                    |
|  \\    /   O peration     | Version:     3.1                                |
|   \\  /    A nd           | Web:         http://www.extend-project.de       |
|    \\/     M anipulation  |                                                 |
\*---------------------------------------------------------------------------*/
FoamFile
{
    version     2.0;
    format      ascii;
    class       volVectorField;
    location    "0";
    object      U;
}
// * * * * * * * * * * * * * * * * * * * * * * * * * * * * * * * * * * * * * //

dimensions      [0 1 -1 0 0 0 0];

internalField   nonuniform List<vector> 
6
(
(0.203039 0.000627513 -0.0429282)
(0.194892 0.00196824 -0.0376567)
(0.1889 0.00344679 -0.0289458)
(0.194481 0.00407292 -0.0214581)
(0.202536 0.00403727 -0.0123167)
(0.19433 0.0047123492 -0.0263581)
)
;
    }
}


// ************************************************************************* //
